data_69990-ICSD_copy
_audit_creation_method         'generated by CrystalMaker X for macOS'
_cell_length_a                   8.510000
_cell_length_b                   7.815000
_cell_length_c                   7.817000
_cell_angle_alpha               90.000000
_cell_angle_beta                91.150000
_cell_angle_gamma               90.000000

_symmetry_space_group_name_H-M     'P 1'

loop_
_symmetry_equiv_pos_as_xyz
'+x,+y,+z'

loop_
_atom_site_label
_atom_site_type_symbol
_atom_site_occupancy
_atom_site_fract_x
_atom_site_fract_y
_atom_site_fract_z
_atom_site_U_iso_or_equiv
 Cu1  Cu 0.5  0.0  0.0  0.0  0.00570
 Cu1_2  Cu 0.5  0.0  0.5  0.0  0.00570
 Cu2  Cu 0.5  0.0  0.0  0.5  0.00545
 Cu2_2  Cu 0.5  0.0  0.5  0.5  0.00545
 Cu3  Cu 0.5  0.5  0.0  0.0  .  
 Cu3_2  Cu 0.5  0.5  0.5  0.0  .  
 Cu4  Cu 0.5  0.5  0.0  0.5  .  
 Cu4_2  Cu 0.5  0.5  0.5  0.5  .  
 La1  La 1.0  0.2118  0.25  0.25  0.00709
 La1_2  La 1.0  0.7882  0.75  0.75  0.00709
 La2  La 1.0  0.1978  0.25  0.75  0.00633
 La2_2  La 1.0  0.8022  0.75  0.25  0.00633
 La3  La 1.0  0.7574  0.25  0.75  0.00532
 La3_2  La 1.0  0.2426  0.75  0.25  0.00532
 La4  La 1.0  0.7715  0.25  0.25  0.01026
 La4_2  La 1.0  0.2285  0.75  0.75  0.01026
 O1  O 1.0  0.0363  -0.0329  0.25  0.00557
 O1_2  O 1.0  0.9637  0.4671  0.75  0.00557
 O1_3  O 1.0  0.9637  0.0329  0.75  0.00557
 O1_4  O 1.0  0.0363  0.5329  0.25  0.00557
 O2  O 1.0  0.2699  -0.0505  0.0  0.00671
 O2_2  O 1.0  0.7301  0.4495  0.0  0.00671
 O2_3  O 1.0  0.7301  0.0505  0.0  0.00671
 O2_4  O 1.0  0.2699  0.5505  1.0  0.00671
 O3  O 1.0  0.2737  0.0509  0.5  0.00823
 O3_2  O 1.0  0.7263  0.5509  0.5  0.00823
 O3_3  O 1.0  0.7263  0.9491  0.5  0.00823
 O3_4  O 1.0  0.2737  0.4491  0.5  0.00823
 O4  O 1.0  0.4298  0.045  0.25  0.00861
 O4_2  O 1.0  0.5702  0.545  0.75  0.00861
 O4_3  O 1.0  0.5702  0.955  0.75  0.00861
 O4_4  O 1.0  0.4298  0.455  0.25  0.00861
 O5  O 1.0  0.0274  0.25  0.0  0.00811
 O5_2  O 1.0  0.9726  0.75  1.0  0.00811
 O6  O 1.0  0.4599  0.25  0.0  0.00925
 O6_2  O 1.0  0.5401  0.75  0.0  0.00925
 O7  O 1.0  0.5826  0.25  0.5  0.00405
 O7_2  O 1.0  0.4174  0.75  0.5  0.00405
 O8  O 1.0  -0.0157  0.25  0.5  0.00266
 O8_2  O 1.0  0.0157  0.75  0.5  0.00266
 Sn1  Sn 0.5  0.5  0.0  0.0  0.00393
 Sn1_2  Sn 0.5  0.5  0.5  0.0  0.00393
 Sn2  Sn 0.5  0.5  0.0  0.5  0.00304
 Sn2_2  Sn 0.5  0.5  0.5  0.5  0.00304
 Sn3  Sn 0.5  0.0  0.0  0.5  .  
 Sn3_2  Sn 0.5  0.0  0.5  0.5  .  
 Sn4  Sn 0.5  0.0  0.0  0.0  .  
 Sn4_2  Sn 0.5  0.0  0.5  0.0  .  

