data_69990-ICSD
_audit_creation_method         'generated by CrystalMaker X for macOS'
_cell_length_a                   8.510000(10)
_cell_length_b                   7.815000(10)
_cell_length_c                   7.817000(10)
_cell_angle_alpha               90.000000(0)
_cell_angle_beta                91.150000(100)
_cell_angle_gamma               90.000000(0)

_symmetry_space_group_name_H-M     'P 1'

loop_
_symmetry_equiv_pos_as_xyz
'+x,+y,+z'

loop_
_atom_site_label
_atom_site_type_symbol
_atom_site_occupancy
_atom_site_fract_x
_atom_site_fract_y
_atom_site_fract_z
_atom_site_U_iso_or_equiv
 Cu1  Cu 1.0  0.00000000(0)  0.00000000(0)  0.00000000(0)  0.00570
 Cu1_2  Cu 1.0  0.00000000(0)  0.50000000(0)  0.00000000(0)  0.00570
 Cu2  Cu 1.0  0.00000000(0)  0.00000000(0)  0.50000000(0)  0.00545
 Cu2_2  Cu 1.0  0.00000000(0)  0.50000000(0)  0.50000000(0)  0.00545
 Cu3  Cu 0.0  0.50000000(0)  0.00000000(0)  0.00000000(0)  .  
 Cu3_2  Cu 0.0  0.50000000(0)  0.50000000(0)  0.00000000(0)  .  
 Cu4  Cu 0.0  0.50000000(0)  0.00000000(0)  0.50000000(0)  .  
 Cu4_2  Cu 0.0  0.50000000(0)  0.50000000(0)  0.50000000(0)  .  
 La1  La 1.0  0.21180000(30000)  0.25000000(0)  0.27920000(40000)  0.00709
 La1_2  La 1.0  0.78820000(30000)  0.75000000(0)  0.72080000(40000)  0.00709
 La2  La 1.0  0.19780000(30000)  0.25000000(0)  0.77110000(30000)  0.00633
 La2_2  La 1.0  0.80220000(30000)  0.75000000(0)  0.22890000(30000)  0.00633
 La3  La 1.0  0.75740000(20000)  0.25000000(0)  0.78550000(30000)  0.00532
 La3_2  La 1.0  0.24260000(20000)  0.75000000(0)  0.21450000(30000)  0.00532
 La4  La 1.0  0.77150000(30000)  0.25000000(0)  0.27610000(40000)  0.01026
 La4_2  La 1.0  0.22850000(30000)  0.75000000(0)  0.72390000(40000)  0.01026
 O1  O 1.0  0.03630000(20000)  -0.03290000(30000)  0.24980000(30000)  0.00557
 O1_2  O 1.0  0.96370000(20000)  0.46710000(30000)  0.75020000(30000)  0.00557
 O1_3  O 1.0  0.96370000(20000)  0.03290000(30000)  0.75020000(30000)  0.00557
 O1_4  O 1.0  0.03630000(20000)  0.53290000(30000)  0.24980000(30000)  0.00557
 O2  O 1.0  0.26990000(20000)  -0.05050000(30000)  -0.04760000(30000)  0.00671
 O2_2  O 1.0  0.73010000(20000)  0.44950000(30000)  0.04760000(30000)  0.00671
 O2_3  O 1.0  0.73010000(20000)  0.05050000(30000)  0.04760000(30000)  0.00671
 O2_4  O 1.0  0.26990000(20000)  0.55050000(30000)  0.95240000(30000)  0.00671
 O3  O 1.0  0.27370000(20000)  0.05090000(30000)  0.55600000(30000)  0.00823
 O3_2  O 1.0  0.72630000(20000)  0.55090000(30000)  0.44400000(30000)  0.00823
 O3_3  O 1.0  0.72630000(20000)  0.94910000(30000)  0.44400000(30000)  0.00823
 O3_4  O 1.0  0.27370000(20000)  0.44910000(30000)  0.55600000(30000)  0.00823
 O4  O 1.0  0.42980000(20000)  0.04500000(30000)  0.24950000(30000)  0.00861
 O4_2  O 1.0  0.57020000(20000)  0.54500000(30000)  0.75050000(30000)  0.00861
 O4_3  O 1.0  0.57020000(20000)  0.95500000(30000)  0.75050000(30000)  0.00861
 O4_4  O 1.0  0.42980000(20000)  0.45500000(30000)  0.24950000(30000)  0.00861
 O5  O 1.0  0.02740000(40000)  0.25000000(0)  0.03370000(50000)  0.00811
 O5_2  O 1.0  0.97260000(40000)  0.75000000(0)  0.96630000(50000)  0.00811
 O6  O 1.0  0.45990000(40000)  0.25000000(0)  -0.07570000(40000)  0.00925
 O6_2  O 1.0  0.54010000(40000)  0.75000000(0)  0.07570000(40000)  0.00925
 O7  O 1.0  0.58260000(40000)  0.25000000(0)  0.52370000(40000)  0.00405
 O7_2  O 1.0  0.41740000(40000)  0.75000000(0)  0.47630000(40000)  0.00405
 O8  O 1.0  -0.01570000(40000)  0.25000000(0)  0.47060000(40000)  0.00266
 O8_2  O 1.0  0.01570000(40000)  0.75000000(0)  0.52940000(40000)  0.00266
 Sn1  Sn 1.0  0.50000000(0)  0.00000000(0)  0.00000000(0)  0.00393
 Sn1_2  Sn 1.0  0.50000000(0)  0.50000000(0)  0.00000000(0)  0.00393
 Sn2  Sn 1.0  0.50000000(0)  0.00000000(0)  0.50000000(0)  0.00304
 Sn2_2  Sn 1.0  0.50000000(0)  0.50000000(0)  0.50000000(0)  0.00304
 Sn3  Sn 0.0  0.00000000(0)  0.00000000(0)  0.50000000(0)  .  
 Sn3_2  Sn 0.0  0.00000000(0)  0.50000000(0)  0.50000000(0)  .  
 Sn4  Sn 0.0  0.00000000(0)  0.00000000(0)  0.00000000(0)  .  
 Sn4_2  Sn 0.0  0.00000000(0)  0.50000000(0)  0.00000000(0)  .  

